
                                 *****************
                                 * O   R   C   A *
                                 *****************

                                            #,                                       
                                            ###                                      
                                            ####                                     
                                            #####                                    
                                            ######                                   
                                           ########,                                 
                                     ,,################,,,,,                         
                               ,,#################################,,                 
                          ,,##########################################,,             
                       ,#########################################, ''#####,          
                    ,#############################################,,   '####,        
                  ,##################################################,,,,####,       
                ,###########''''           ''''###############################       
              ,#####''   ,,,,##########,,,,          '''####'''          '####       
            ,##' ,,,,###########################,,,                        '##       
           ' ,,###''''                  '''############,,,                           
         ,,##''                                '''############,,,,        ,,,,,,###''
      ,#''                                            '''#######################'''  
     '                                                          ''''####''''         
             ,#######,   #######,   ,#######,      ##                                
            ,#'     '#,  ##    ##  ,#'     '#,    #''#        ,####,   ,####,        
            ##       ##  ##   ,#'  ##            #'  '#       #'       #'  '#        
            ##       ##  #######   ##           ,######,      #####,   #    #        
            '#,     ,#'  ##    ##  '#,     ,#' ,#      #,     #,   #   #,  ,#        
             '#######'   ##     ##  '#######'  #'      '#     '####' # '####'        



                #########################################################
                #                        -***-                          #
                #          Department of theory and spectroscopy        #
                #                                                       #
                #                      Frank Neese                      #
                #                                                       #
                #     Directorship, Architecture, Infrastructure        #
                #                    SHARK, DRIVERS                     #
                #        Core code/Algorithms in most modules           #
                #                                                       #
                #        Max Planck Institute fuer Kohlenforschung      #
                #                Kaiser Wilhelm Platz 1                 #
                #                 D-45470 Muelheim/Ruhr                 #
                #                      Germany                          #
                #                                                       #
                #                  All rights reserved                  #
                #                        -***-                          #
                #########################################################


                         Program Version 6.0.0  -   RELEASE  -


 With contributions from (in alphabetic order):
   Daniel Aravena         : Magnetic Suceptibility
   Michael Atanasov       : Ab Initio Ligand Field Theory (pilot matlab implementation)
   Alexander A. Auer      : GIAO ZORA, VPT2 properties, NMR spectrum
   Ute Becker             : All parallelization in ORCA, NUMFREQ, NUMCALC
   Giovanni Bistoni       : ED, misc. LED, open-shell LED, HFLD
   Martin Brehm           : Molecular dynamics
   Dmytro Bykov           : pre 5.0 version of the SCF Hessian
   Marcos Casanova-Páez   : Triplet and SCS-CIS(D). UHF-(DLPNO)-IP/EA/STEOM-CCSD. UHF-CVS-IP/STEOM-CCSD
   Vijay G. Chilkuri      : MRCI spin determinant printing, contributions to CSF-ICE
   Pauline Colinet        : FMM embedding
   Dipayan Datta          : RHF DLPNO-CCSD density
   Achintya Kumar Dutta   : EOM-CC, STEOM-CC
   Nicolas Foglia         : Exact transition moments, OPA infrastructure, MCD improvements
   Dmitry Ganyushin       : Spin-Orbit,Spin-Spin,Magnetic field MRCI
   Miquel Garcia          : C-PCM and meta-GGA Hessian, CCSD/C-PCM, Gaussian charge scheme
   Tiago L. C. Gouveia    : GS-ROHF, GS-ROCIS
   Yang Guo               : DLPNO-NEVPT2, F12-NEVPT2, CIM, IAO-localization
   Andreas Hansen         : Spin unrestricted coupled pair/coupled cluster methods
   Ingolf Harden          : AUTO-CI MPn and infrastructure 
   Benjamin Helmich-Paris : MC-RPA, TRAH-(SCF,CASSCF), AVAS, COSX integrals, SCF dyn. polar.
   Lee Huntington         : MR-EOM, pCC
   Robert Izsak           : Overlap fitted RIJCOSX, COSX-SCS-MP3, EOM
   Riya Kayal             : Wick's Theorem for AUTO-CI, AUTO-CI UHF-CCSDT
   Emily Kempfer          : AUTO-CI, RHF CISDT and CCSDT
   Christian Kollmar      : KDIIS, OOCD, Brueckner-CCSD(T), CCSD density, CASPT2, CASPT2-K, improved NEVPT2
   Axel Koslowski         : Symmetry handling
   Simone Kossmann        : Meta GGA functionals, TD-DFT gradient, OOMP2, (MP2 Hessian; deprecated post 5.0)
   Lucas Lang             : DCDCAS
   Marvin Lechner         : AUTO-CI (C++ implementation), FIC-MRCC
   Spencer Leger          : CASSCF response
   Dagmar Lenk            : GEPOL surface, SMD, ORCA-2-JSON
   Dimitrios Liakos       : Extrapolation schemes; Compound Job, initial MDCI parallelization
   Dimitrios Manganas     : Further ROCIS development; embedding schemes. LFT, Crystal Embedding
   Dimitrios Pantazis     : SARC Basis sets
   Anastasios Papadopoulos: AUTO-CI, single reference methods and gradients
   Taras Petrenko         : pre 6.0 DFT Hessian and TD-DFT gradient, (ASA, deprecated), ECA, 1-Electron XAS/XES, NRVS
   Peter Pinski           : DLPNO-MP2, DLPNO-MP2 Gradient
   Christoph Reimann      : Effective Core Potentials
   Marius Retegan         : Local ZFS, SOC
   Christoph Riplinger    : Optimizer, TS searches, QM/MM, DLPNO-CCSD(T), (RO)-DLPNO pert. Triples
   Michael Roemelt        : Original ROCIS implementation
   Masaaki Saitow         : Open-shell DLPNO-CCSD energy and density
   Barbara Sandhoefer     : DKH picture change effects
   Kantharuban Sivalingam : CASSCF convergence/infrastructure, NEVPT2 and variants, FIC-MRCI
   Bernardo de Souza      : ESD, SOC TD-DFT
   Georgi Stoychev        : AutoAux, RI-MP2 NMR, DLPNO-MP2 response, X2C
   Van Anh Tran           : RI-MP2 g-tensors
   Willem Van den Heuvel  : Paramagnetic NMR
   Zikuan Wang            : NOTCH, Electric field optimization 
   Frank Wennmohs         : Technical directorship and infrastructure
   Hang Xu                : AUTO-CI-Response properties 


 We gratefully acknowledge several colleagues who have allowed us to
 interface, adapt or use parts of their codes:
   Stefan Grimme, W. Hujo, H. Kruse, P. Pracht,  : VdW corrections, initial TS optimization,
                  C. Bannwarth, S. Ehlert,         DFT functionals, gCP, sTDA/sTD-DF
                  L. Wittmann, M. Mueller
   Ed Valeev, F. Pavosevic, A. Kumar             : LibInt (2-el integral package), F12 methods
   Garnet Chan, S. Sharma, J. Yang, R. Olivares  : DMRG
   Ulf Ekstrom                                   : XCFun DFT Library
   Mihaly Kallay                                 : mrcc  (arbitrary order and MRCC methods)
   Frank Weinhold                                : gennbo (NPA and NBO analysis)
   Simon Mueller                                 : openCOSMO-RS
   Christopher J. Cramer and Donald G. Truhlar   : smd solvation model
   Lars Goerigk                                  : TD-DFT with DH, B97 family of functionals
   V. Asgeirsson, H. Jonsson                     : NEB implementation
   FAccTs GmbH                                   : IRC, NEB, NEB-TS, DLPNO-Multilevel, CI-OPT
                                                   MM, QMMM, 2- and 3-layer-ONIOM, Crystal-QMMM,
                                                   LR-CPCM, SF, NACMEs, symmetry and pop. for TD-DFT,
                                                   nearIR, NL-DFT gradient (VV10), updates on ESD,
                                                   ML-optimized integration grids, MBIS, APM,
                                                   GOAT, DOCKER, SOLVATOR, interface openCOSMO-RS
   S Lehtola, MJT Oliveira, MAL Marques          : LibXC Library
   Liviu Ungur et al                             : ANISO software


 Your calculation uses the libint2 library for the computation of 2-el integrals
 For citations please refer to: http://libint.valeyev.net

 Your ORCA version has been built with support for libXC version: 6.2.2
 For citations please refer to: https://libxc.gitlab.io

 This ORCA versions uses:
   CBLAS   interface :  Fast vector & matrix operations
   LAPACKE interface :  Fast linear algebra routines
   SCALAPACK package :  Parallel linear algebra routines
   Shared memory     :  Shared parallel matrices
   BLAS/LAPACK       :  OpenBLAS 0.3.27  USE64BITINT DYNAMIC_ARCH NO_AFFINITY Haswell SINGLE_THREADED
        Core in use  :  Haswell
   Copyright (c) 2011-2014, The OpenBLAS Project


NOTE: MaxCore=7000 MB was set to SCF,MP2,MDCI,CIPSI,MRCI and CIS
      => If you want to overwrite this, your respective input block should be placed after the MaxCore statement


***************************************
The coordinates will be read from file: struc.xyz
***************************************


Your calculation utilizes the atom-pairwise dispersion correction
based on EEQ partial charges (D4)


================================================================================

cite the ECPs for C  [vDZP-ECP], O  [vDZP-ECP] as follows:
   B-Ne (ecp-2-mwb), Al-Ar (ecp-10-mwb), Ga-Kr (ecp-28-mwb), Y-Cd (ecp-28-mwb), In-Xe (ecp-46-mwb):
     A. Bergner, M. Dolg, W. Küchle, H. Stoll, and H. Preuß, Mol. Phys. 80, 1431 (1993)., T. Leininger, A. Berning, A. Nicklass, H. Stoll, H.-J. Werner, and H.-J.Flad, Chem. Phys. 217, 19 (1997).
   Na-Mg, K-Ca, Rb-Sr, Cs-Ba (CRENBL):
     L. Fernandez Pacios and P. A. Christiansen, J. Chem. Phys. 82, 2664 (1985)., M. M. Hurley, L. F. Pacios, P. A. Christiansen, R. B. Ross, and W. C. Ermler, J. Chem. Phys. 84, 6840 (1986)., L. A. LaJohn, P. A. Christiansen, R. B. Ross, T. Atashroo, and W. C. Ermler, J. Chem. Phys. 87, 2812 (1987)., R. B. Ross, J. M. Powers, T. Atashroo, W. C. Ermler, L. A. LaJohn, and P. A. Christiansen, J. Chem. Phys. 93, 6654 (1990). 
   Sc-Zn (ecp-10-mdf):
     M. Dolg, U. Wedig, H. Stoll, and H. Preuss, J. Chem. Phys. 86, 866 (1986). 
   Y-Cd (ecp-28-mwb), Hf-Hg (ecp-60-mwb):
     D. Andrae, U. Häußermann, M. Dolg, H. Stoll, and H. Preuß, Theor. Chim. Acta 77, 123 (1990). 
   La (ecp-46-mwb):
     M. Dolg, H. Stoll, and H. Preuss, J. Chem. Phys. 90, 1730 (1989)., M. Dolg, H. Stoll, and H. Preuss, Theor. Chim. Acta 85, 441 (1993).
   Ce-Lu (SBKJC-ecp):
     T. R. Cundari and W. J. Stevens, J. Chem. Phys. 98, 5555 (1993).
   Tl-Rn (ecp-78-mwb):
     W. Küchle, M. Dolg, H. Stoll, and H. Preuss, Mol. Phys. 74, 1245 (1991).

ECP parameters for C  [vDZP-ECP], O  [vDZP-ECP] have been obtained from:
MM, AH, SG, J. Chem. Phys. 158, 014103 (2023), 10.1063/5.0133026

----- Orbital basis set information -----
Your calculation utilizes the basis: vDZP
   Marcel Mueller, Andreas Hansen, Stefan Grimme 
   J. Chem. Phys. 158, 014103 (2023). DOI: 10.1063/5.0133026

----- AuxJ basis set information -----
Your calculation utilizes the auxiliary basis: def2/J
   F. Weigend, Phys. Chem. Chem. Phys. 8, 1057 (2006).

================================================================================
                                        WARNINGS
                       Please study these warnings very carefully!
================================================================================

WARNING: Gradients needed for Numerical Frequencies
  ===> : Setting RunTyp to EnGrad

WARNING: The environment variable RSH_COMMAND is not set!
  ===> : All Displacements for the Numerical Hessian or Gradient calculation
         will be started on localhost

================================================================================
                                       INPUT FILE
================================================================================
NAME = orca.inp
|  1> !wB97X-3c CPCM(Water) NumFreq
|  2> %maxcore 7000
|  3> %pal nprocs 28
|  4> end
|  5> %elprop polar 1
|  6> end
|  7> *xyzfile 0 1 struc.xyz
|  8> 
|  9>                          ****END OF INPUT****
================================================================================

                     *******************************
                     * Energy+Gradient Calculation *
                     *******************************

---------------------------------
CARTESIAN COORDINATES (ANGSTROEM)
---------------------------------
  C     -4.302799   -0.369326    0.036499
  C     -4.422565   -1.747345   -0.039365
  C     -3.047441    0.200635    0.186559
  C     -3.302311   -2.559051    0.032721
  C     -1.918408   -0.602177    0.259765
  C     -2.052261   -1.976790    0.182504
  H     -0.947360   -0.140585    0.376343
  H     -1.168651   -2.598633    0.239957
  H     -3.401215   -3.634046   -0.027153
  H     -5.178801    0.264919   -0.019558
  H     -5.404391   -2.186669   -0.155975
  O     -2.870128    1.544644    0.267263
  H     -3.713590    2.001364    0.201089

----------------------------
CARTESIAN COORDINATES (A.U.)
----------------------------
  NO LB      ZA    FRAG     MASS         X           Y           Z
   0 C     4.0000*   0    12.011   -8.131112   -0.697925    0.068974
   1 C     4.0000*   0    12.011   -8.357437   -3.302004   -0.074389
   2 C     4.0000*   0    12.011   -5.758830    0.379145    0.352545
   3 C     4.0000*   0    12.011   -6.240462   -4.835906    0.061834
   4 C     4.0000*   0    12.011   -3.625266   -1.137949    0.490885
   5 C     4.0000*   0    12.011   -3.878212   -3.735592    0.344882
   6 H     1.0000    0     1.008   -1.790251   -0.265668    0.711185
   7 H     1.0000    0     1.008   -2.208430   -4.910705    0.453454
   8 H     1.0000    0     1.008   -6.427364   -6.867351   -0.051312
   9 H     1.0000    0     1.008   -9.786515    0.500624   -0.036960
  10 H     1.0000    0     1.008  -10.212819   -4.132206   -0.294750
  11 O     6.0000*   0    15.999   -5.423756    2.918955    0.505054
  12 H     1.0000    0     1.008   -7.017668    3.782030    0.380003
* core charge reduced due to ECP

--------------------------------
INTERNAL COORDINATES (ANGSTROEM)
--------------------------------
 C      0   0   0     0.000000000000     0.00000000     0.00000000
 C      1   0   0     1.385292978757     0.00000000     0.00000000
 C      1   2   0     1.386829596320   119.53851203     0.00000000
 C      2   1   3     1.385291492895   120.67081812     0.00000000
 C      3   1   2     1.387293225225   120.30255565     0.02792595
 C      5   3   1     1.383274515759   119.56213190     0.00000000
 H      5   3   1     1.081476440327   119.30335356   179.97168577
 H      6   5   3     1.082015197699   119.28289555   179.99148774
 H      4   2   1     1.081193928516   120.37976392   180.00950608
 H      1   2   3     1.082953516225   120.65175000   180.04096946
 H      2   1   3     1.081936220813   119.22754995   179.97268643
 O      3   1   2     1.358055188340   122.09655080   180.03752378
 H     12   3   1     0.961457311751   110.57816420   359.69003542

---------------------------
INTERNAL COORDINATES (A.U.)
---------------------------
 C      0   0   0     0.000000000000     0.00000000     0.00000000
 C      1   0   0     2.617824345094     0.00000000     0.00000000
 C      1   2   0     2.620728131461   119.53851203     0.00000000
 C      2   1   3     2.617821537222   120.67081812     0.00000000
 C      3   1   2     2.621604263120   120.30255565     0.02792595
 C      5   3   1     2.614010002817   119.56213190     0.00000000
 H      5   3   1     2.043694292506   119.30335356   179.97168577
 H      6   5   3     2.044712396393   119.28289555   179.99148774
 H      4   2   1     2.043160422554   120.37976392   180.00950608
 H      1   2   3     2.046485561432   120.65175000   180.04096946
 H      2   1   3     2.044563151707   119.22754995   179.97268643
 O      3   1   2     2.566352380714   122.09655080   180.03752378
 H     12   3   1     1.816891008665   110.57816420   359.69003542

---------------------
BASIS SET INFORMATION
---------------------
There are 3 groups of distinct atoms

 Group   1 Type C   : 6s6p2d contracted to 2s2p1d pattern {42/42/2}
 Group   2 Type H   : 8s2p contracted to 2s1p pattern {53/2}
 Group   3 Type O   : 6s6p2d contracted to 2s2p1d pattern {42/42/2}

Atom   0C    basis set group =>   1
Atom   1C    basis set group =>   1
Atom   2C    basis set group =>   1
Atom   3C    basis set group =>   1
Atom   4C    basis set group =>   1
Atom   5C    basis set group =>   1
Atom   6H    basis set group =>   2
Atom   7H    basis set group =>   2
Atom   8H    basis set group =>   2
Atom   9H    basis set group =>   2
Atom  10H    basis set group =>   2
Atom  11O    basis set group =>   3
Atom  12H    basis set group =>   2
---------------------------------
AUXILIARY/J BASIS SET INFORMATION
---------------------------------
There are 3 groups of distinct atoms

 Group   1 Type C   : 12s5p4d2f1g contracted to 6s4p3d1f1g pattern {711111/2111/211/2/1}
 Group   2 Type H   : 5s2p1d contracted to 3s1p1d pattern {311/2/1}
 Group   3 Type O   : 12s5p4d2f1g contracted to 6s4p3d1f1g pattern {711111/2111/211/2/1}

Atom   0C    basis set group =>   1
Atom   1C    basis set group =>   1
Atom   2C    basis set group =>   1
Atom   3C    basis set group =>   1
Atom   4C    basis set group =>   1
Atom   5C    basis set group =>   1
Atom   6H    basis set group =>   2
Atom   7H    basis set group =>   2
Atom   8H    basis set group =>   2
Atom   9H    basis set group =>   2
Atom  10H    basis set group =>   2
Atom  11O    basis set group =>   3
Atom  12H    basis set group =>   2
-------------------------
ECP PARAMETER INFORMATION
-------------------------

 Group 1, Type C  ECP vDZP-ECP (replacing 2 core electrons, lmax=3)
 Group 2, Type O  ECP vDZP-ECP (replacing 2 core electrons, lmax=3)

Atom   0C    ECP group =>   1
Atom   1C    ECP group =>   1
Atom   2C    ECP group =>   1
Atom   3C    ECP group =>   1
Atom   4C    ECP group =>   1
Atom   5C    ECP group =>   1
Atom  11O    ECP group =>   2



           ************************************************************
           *        Program running with 28 parallel MPI-processes    *
           *              working on a common directory               *
           ************************************************************
------------------------------------------------------------------------------
                             ORCA STARTUP CALCULATIONS
                           -- RI-GTO INTEGRALS CHOSEN --
------------------------------------------------------------------------------
------------------------------------------------------------------------------
                   ___                                                        
                  /   \      - P O W E R E D   B Y -                         
                 /     \                                                     
                 |  |  |   _    _      __       _____    __    __             
                 |  |  |  | |  | |    /  \     |  _  \  |  |  /  |          
                  \  \/   | |  | |   /    \    | | | |  |  | /  /          
                 / \  \   | |__| |  /  /\  \   | |_| |  |  |/  /          
                |  |  |   |  __  | /  /__\  \  |    /   |      \           
                |  |  |   | |  | | |   __   |  |    \   |  |\   \          
                \     /   | |  | | |  |  |  |  | |\  \  |  | \   \       
                 \___/    |_|  |_| |__|  |__|  |_| \__\ |__|  \__/        
                                                                              
                      - O R C A' S   B I G   F R I E N D -                    
                                      &                                       
                       - I N T E G R A L  F E E D E R -                       
                                                                              
 v1 FN, 2020, v2 2021, v3 2022-2024                                           
------------------------------------------------------------------------------


----------------------
SHARK INTEGRAL PACKAGE
----------------------

Number of atoms                             ...     13
Number of basis functions                   ...    121
Number of shells                            ...     53
Maximum angular momentum                    ...      2
Integral batch strategy                     ... SHARK/LIBINT Hybrid
RI-J (if used) integral strategy            ... SPLIT-RIJ (Revised 2003 algorithm where possible)
Printlevel                                  ...      1
Contraction scheme used                     ... SEGMENTED contraction
Prescreening option                         ... SCHWARTZ
   Thresh                                   ... 2.500e-11
   Tcut                                     ... 2.500e-12
   Tpresel                                  ... 2.500e-12 
Coulomb Range Separation                    ... NOT USED
Exchange Range Separation                   ... Long Range
   Mu parameter                             ... 3.000e-01
   Scaling (regular/separated)              ... 1.670e-01 8.330e-01
Multipole approximations                    ... NOT USED
Finite Nucleus Model                        ... NOT USED
CABS basis                                  ... NOT available
Auxiliary Coulomb fitting basis             ... AVAILABLE
   # of basis functions in Aux-J            ...    409
   # of shells in Aux-J                     ...    135
   Maximum angular momentum in Aux-J        ...      4
Auxiliary J/K fitting basis                 ... NOT available
Auxiliary Correlation fitting basis         ... NOT available
Auxiliary 'external' fitting basis          ... NOT available

Checking pre-screening integrals            ... done (  0.0 sec) Dimension = 53
Check shell pair data                       ... done (  0.0 sec)
Shell pair information
Shell pair cut-off parameter TPreSel        ...   2.5e-12
Total number of shell pairs                 ...      1431
Shell pairs after pre-screening             ...      1431
Total number of primitive shell pairs       ...     12750
Primitive shell pairs kept                  ...     11411
          la=0 lb=0:    351 shell pairs
          la=1 lb=0:    520 shell pairs
          la=1 lb=1:    210 shell pairs
          la=2 lb=0:    182 shell pairs
          la=2 lb=1:    140 shell pairs
          la=2 lb=2:     28 shell pairs

Calculating one electron integrals          ... done (  0.0 sec)
Calculating ECP integrals                   ... done (  0.0 sec)
Calculating RI/J V-Matrix + Cholesky decomp.... done (  0.2 sec)
Calculating Nuclear repulsion               ... done (  0.0 sec) ENN=    139.922509945791 Eh

Diagonalization of the overlap matrix:
Smallest eigenvalue                        ... 4.264e-04
Time for diagonalization                   ...    0.002 sec
Threshold for overlap eigenvalues          ... 1.000e-07
Number of eigenvalues below threshold      ... 0
Time for construction of square roots      ...    0.001 sec
Total time needed                          ...    0.004 sec

-------------------
DFT GRID GENERATION
-------------------

General Integration Accuracy     IntAcc      ... 4.388
Radial Grid Type                 RadialGrid  ... OptM3 with GC (2021)
Angular Grid (max. ang.)         AngularGrid ... 4 (Lebedev-302)
Angular grid pruning method      GridPruning ... 4 (adaptive)
Weight generation scheme         WeightScheme... mBecke (2022)
Basis function cutoff            BFCut       ... 1.0000e-11
Integration weight cutoff        WCut        ... 1.0000e-14
Partially contracted basis set               ... off
Rotationally invariant grid construction     ... off
Angular grids for H and He will be reduced by one unit

Total number of grid points                  ...    61566
Total number of batches                      ...      969
Average number of points per batch           ...       63
Average number of grid points per atom       ...     4736

--------------------
COSX GRID GENERATION
--------------------

GRIDX 1
-------
General Integration Accuracy     IntAcc      ... 3.816
Radial Grid Type                 RadialGrid  ... OptM3 with GC (2021)
Angular Grid (max. ang.)         AngularGrid ... 1 (Lebedev-50)
Angular grid pruning method      GridPruning ... 4 (adaptive)
Weight generation scheme         WeightScheme... mBecke (2022)
Basis function cutoff            BFCut       ... 1.0000e-11
Integration weight cutoff        WCut        ... 1.0000e-14
Partially contracted basis set               ... on
Rotationally invariant grid construction     ... off
Angular grids for H and He will be reduced by one unit

Total number of grid points                  ...     7883
Total number of batches                      ...       67
Average number of points per batch           ...      117
Average number of grid points per atom       ...      606
UseSFitting                                  ... on

GRIDX 2
-------
General Integration Accuracy     IntAcc      ... 4.020
Radial Grid Type                 RadialGrid  ... OptM3 with GC (2021)
Angular Grid (max. ang.)         AngularGrid ... 2 (Lebedev-110)
Angular grid pruning method      GridPruning ... 4 (adaptive)
Weight generation scheme         WeightScheme... mBecke (2022)
Basis function cutoff            BFCut       ... 1.0000e-11
Integration weight cutoff        WCut        ... 1.0000e-14
Partially contracted basis set               ... on
Rotationally invariant grid construction     ... off
Angular grids for H and He will be reduced by one unit

Total number of grid points                  ...    17285
Total number of batches                      ...      141
Average number of points per batch           ...      122
Average number of grid points per atom       ...     1330
UseSFitting                                  ... on

GRIDX 3
-------
General Integration Accuracy     IntAcc      ... 4.338
Radial Grid Type                 RadialGrid  ... OptM3 with GC (2021)
Angular Grid (max. ang.)         AngularGrid ... 3 (Lebedev-194)
Angular grid pruning method      GridPruning ... 4 (adaptive)
Weight generation scheme         WeightScheme... mBecke (2022)
Basis function cutoff            BFCut       ... 1.0000e-11
Integration weight cutoff        WCut        ... 1.0000e-14
Partially contracted basis set               ... on
Rotationally invariant grid construction     ... off
Angular grids for H and He will be reduced by one unit

Total number of grid points                  ...    38030
Total number of batches                      ...      304
Average number of points per batch           ...      125
Average number of grid points per atom       ...     2925
UseSFitting                                  ... on
Initializing property integral containers    ... done (  0.0 sec)

SHARK setup successfully completed in   0.9 seconds

Maximum memory used throughout the entire STARTUP-calculation: 16.8 MB


           ************************************************************
           *        Program running with 28 parallel MPI-processes    *
           *              working on a common directory               *
           ************************************************************
-------------------------------------------------------------------------------
                                 ORCA GUESS
                   Start orbitals & Density for SCF / CASSCF
-------------------------------------------------------------------------------

------------
SCF SETTINGS
------------
Hamiltonian:
 Density Functional     Method          .... DFT(GTOs)
 Exchange Functional    Exchange        .... WB97X-V
 Correlation Functional Correlation     .... WB97X-V
 Gradients option       PostSCFGGA      .... off
 Hybrid DFT is turned on
   Fraction HF Exchange ScalHFX         ....  0.167000
   Scaling of DF-GGA-X  ScalDFX         ....  0.000000
   Scaling of DF-GGA-C  ScalDFC         ....  1.000000
   Scaling of DF-LDA-C  ScalLDAC        ....  1.000000
   Perturbative correction              ....  0.000000
 Long-range corrected/Screened/Range-Separated Hybrid DFT is turned on
   Amount of maximum screened exact exchange              ....  0.833000
   Range separation parameter mu (erf(mu*r12)/r12)        ....  0.300000
   NL short-range parameter             ....  6.000000
   NL long-range parameter              ....  0.010000
 RI-approximation to the Coulomb term is turned on
   Number of AuxJ basis functions       .... 409
   RIJ-COSX (HFX calculated with COS-X)).... on


General Settings:
 Integral files         IntName         .... orca
 Hartree-Fock type      HFTyp           .... RHF
 Total Charge           Charge          ....    0
 Multiplicity           Mult            ....    1
 Number of Electrons    NEL             ....   36
 Basis Dimension        Dim             ....  121
 Nuclear Repulsion      ENuc            ....    139.9225099458 Eh

Convergence Acceleration:
 AO-DIIS                CNVDIIS         .... on
   Start iteration      DIISMaxIt       ....    12
   Startup error        DIISStart       ....  0.200000
   # of expansion vecs  DIISMaxEq       ....     5
   Bias factor          DIISBfac        ....   1.050
   Max. coefficient     DIISMaxC        ....  10.000
 MO-DIIS                CNVKDIIS        .... off
 Trust-Rad. Augm. Hess. CNVTRAH         .... auto
   Auto Start mean grad. ratio tolernc. ....  1.125000
   Auto Start start iteration           ....    50
   Auto Start num. interpolation iter.  ....    10
   Max. Number of Micro iterations      ....    24
   Max. Number of Macro iterations      .... Maxiter - #DIIS iter
   Number of Davidson start vectors     ....     2
   Converg. threshold    (grad. norm)   ....   1.000e-05
   Grad. Scal. Fac. for Micro threshold ....   0.100
   Minimum threshold for Micro iter.    ....   1.000e-02
   NR start threshold (gradient norm)   ....   1.000e-04
   Initial trust radius                 ....   0.400
   Minimum AH scaling param. (alpha)    ....   1.000
   Maximum AH scaling param. (alpha)    .... 1000.000
   Quad. conv. algorithm                .... NR
   White noise on init. David. guess    .... on
   Maximum white noise                  ....   0.010
   Pseudo random numbers                .... off
   Inactive MOs                         .... canonical
   Orbital update algorithm             .... Taylor
   Preconditioner                       .... Diag
   Full preconditioner red. dimension   ....   250
 SOSCF                  CNVSOSCF        .... on
   Start iteration      SOSCFMaxIt      ....   150
   Startup grad/error   SOSCFStart      ....  0.003300
   Hessian update       SOSCFHessUp     .... L-BFGS
 Level Shifting         CNVShift        .... on
   Level shift para.    LevelShift      ....    0.2500
   Turn off err/grad.   ShiftErr        ....    0.0010
 Zerner damping         CNVZerner       .... off
 Static damping         CNVDamp         .... on
   Fraction old density DampFac         ....    0.7000
   Max. Damping (<1)    DampMax         ....    0.9800
   Min. Damping (>=0)   DampMin         ....    0.0000
   Turn off err/grad.   DampErr         ....    0.1000

SCF Procedure:
 Maximum # iterations   MaxIter         ....   125
 SCF integral mode      SCFMode         .... Direct
   Integral package                     .... SHARK and LIBINT hybrid scheme
 Reset frequency        DirectResetFreq ....    20
 Integral Threshold     Thresh          ....  2.500e-11 Eh
 Primitive CutOff       TCut            ....  2.500e-12 Eh

Convergence Tolerance:
 Convergence Check Mode ConvCheckMode   .... Total+1el-Energy
 Convergence forced     ConvForced      .... 0
 Energy Change          TolE            ....  1.000e-08 Eh
 1-El. energy change                    ....  1.000e-05 Eh
 Orbital Gradient       TolG            ....  1.000e-05
 Orbital Rotation angle TolX            ....  1.000e-05
 DIIS Error             TolErr          ....  5.000e-07

------------------------------
INITIAL GUESS: MODEL POTENTIAL
------------------------------
Loading Hartree-Fock densities                     ... done
Atomic calculation to generate a density for atom 0 (C  with ECP)
  Multiplicity assumed   :    1
  Atomic configuration   : 1s2 2s2 2p2 
  Number of open shells  : 1
  Command: /home/mctc/software/orca/6.0.0/orca orca_atom6.inp "" > orca_atom6.out
Returned from the atomic calculation with res=0
Atomic calculation to generate a density for atom 11 (O  with ECP)
  Multiplicity assumed   :    3
  Atomic configuration   : 1s2 2s2 2p4 
  Number of open shells  : 1
  Command: /home/mctc/software/orca/6.0.0/orca orca_atom8.inp "" > orca_atom8.out
Returned from the atomic calculation with res=0
Calculating cut-offs                               ... done
Initializing the effective Hamiltonian             ... done
Setting up the integral package (SHARK)            ... done
Starting the Coulomb interaction                   ... done (   0.0 sec)
Making the grid                                    ... done (   0.1 sec)
Mapping shells                                     ... done
Starting the XC term evaluation                    ... done (   0.0 sec)
  promolecular density results
     # of electrons  =     49.997525016
     EX              =    -27.430416073
     EC              =     -2.060118218
     EX+EC           =    -29.490534291
Transforming the Hamiltonian                       ... done (   0.0 sec)
Diagonalizing the Hamiltonian                      ... done (   0.0 sec)
Back transforming the eigenvectors                 ... done (   0.0 sec)
Now organizing SCF variables                       ... done
                      ------------------
                      INITIAL GUESS DONE (  14.5 sec)
                      ------------------
             **** ENERGY FILE WAS UPDATED (orca.en.tmp) ****
Finished Guess after  20.3 sec
Maximum memory used throughout the entire GUESS-calculation: 10.0 MB


           ************************************************************
           *        Program running with 28 parallel MPI-processes    *
           *              working on a common directory               *
           ************************************************************

-------------------------------------------------------------------------------------------
                                      ORCA LEAN-SCF
                              memory conserving SCF solver
-------------------------------------------------------------------------------------------

--------------------
CPCM SOLVATION MODEL
--------------------
CPCM parameters:
  Epsilon                                         ...      80.1510
  Refrac                                          ...       1.3328
  Rsolv                                           ...       1.3000
  Surface type                                    ... GAUSSIAN VDW
  Discretization scheme                           ... Constant charge density
    Threshold for H atoms                         ...       5.0000 (charges/Ang^2)
    Threshold for non-H atoms                     ...       5.0000 (charges/Ang^2)
  Epsilon function type                           ...         CPCM
Solvent:                                          ... WATER
Radii:
  Scheme                                          ... Element-dependent radii
  Radius for C  used is    3.8550 Bohr (=   2.0400 Ang.)
  Radius for H  used is    2.4944 Bohr (=   1.3200 Ang.)
  Radius for O  used is    3.4469 Bohr (=   1.8240 Ang.)
Calculating surface                               ...        done! (  0.0s)
Cavity surface points                             ...         1311
Cavity Volume                                     ...     831.4204
Cavity Surface-area                               ...     482.0733
Calculating surface distance matrix               ...        done! (  0.0s)
Performing Cholesky decomposition & store         ...        done! (  0.0s)
Overall time for CPCM initialization              ...                 0.1s

----------------------------------------D-I-I-S--------------------------------------------
Iteration    Energy (Eh)           Delta-E    RMSDP     MaxDP     DIISErr   Damp  Time(sec)
-------------------------------------------------------------------------------------------
               ***  Starting incremental Fock matrix formation  ***
    1    -53.6085559286521516     0.00e+00  5.40e-03  7.22e-02  1.71e-01  0.700   0.7
    2    -53.6958997092002051    -8.73e-02  4.09e-03  5.52e-02  1.07e-01  0.700   0.5
                               ***Turning on AO-DIIS***
    3    -53.7438960572874009    -4.80e-02  2.28e-03  3.03e-02  5.84e-02  0.700   0.5
    4    -53.7726227491069153    -2.87e-02  4.90e-03  6.34e-02  3.73e-02  0.000   0.4
                              *** Initializing SOSCF ***
---------------------------------------S-O-S-C-F--------------------------------------
Iteration    Energy (Eh)           Delta-E    RMSDP     MaxDP     MaxGrad    Time(sec)
--------------------------------------------------------------------------------------
    5    -53.8331054666359137    -6.05e-02  2.61e-04  3.04e-03  2.90e-03     0.5
               *** Restarting incremental Fock matrix formation ***
    6    -53.8332870681734050    -1.82e-04  1.64e-04  4.03e-03  1.01e-03     0.7
    7    -53.8333076307852139    -2.06e-05  8.99e-05  1.95e-03  4.85e-04     0.6
    8    -53.8333166335899875    -9.00e-06  2.28e-05  3.25e-04  1.30e-04     0.6
    9    -53.8333170015986582    -3.68e-07  1.04e-05  1.25e-04  5.81e-05     0.6
   10    -53.8333171099509400    -1.08e-07  3.04e-06  7.87e-05  1.93e-05     0.6
   11    -53.8333171184023342    -8.45e-09  1.14e-06  1.85e-05  1.13e-05     0.5
                 **** Energy Check signals convergence ****

               *****************************************************
               *                     SUCCESS                       *
               *           SCF CONVERGED AFTER  11 CYCLES          *
               *****************************************************

Recomputing exchange energy using gridx3       ... done (    1.037 sec)
Old exchange energy                            :     -7.014879108 Eh
New exchange energy                            :     -7.014883065 Eh
Exchange energy change after final integration :     -0.000003957 Eh
Total energy after final integration           :    -53.833321075 Eh
             **** ENERGY FILE WAS UPDATED (orca.en.tmp) ****

----------------
TOTAL SCF ENERGY
----------------

Total Energy       :        -53.83332107549689 Eh           -1464.87914 eV

Components:
Nuclear Repulsion  :        139.92250994579106 Eh            3807.48506 eV
Electronic Energy  :       -193.74344956955261 Eh           -5272.02729 eV
One Electron Energy:       -359.13904178512468 Eh           -9772.67016 eV
Two Electron Energy:        165.39559221557207 Eh            4500.64287 eV
CPCM Dielectric    :         -0.01237749464078 Eh              -0.33681 eV

Virial components:
Potential Energy   :        -95.58944906416552 Eh           -2601.12115 eV
Kinetic Energy     :         41.75612798866863 Eh            1136.24201 eV
Virial Ratio       :          2.28923163302176

DFT components:
N(Alpha)           :       18.000045299779 electrons
N(Beta)            :       18.000045299779 electrons
N(Total)           :       36.000090599558 electrons
E(X)               :       -7.825882928303 Eh       
E(C)               :       -1.385319285215 Eh       
E(XC)              :       -9.211202213518 Eh       

CPCM Solvation Model Properties:
Surface-charge          :         -0.02672358744341
Corrected charge        :         -0.00000000000000
Outlying charge corr.   :          0.00005801999287 Eh               0.00158 eV
Free-energy (cav+disp)  :  This term is not implemented in the current solvation scheme

---------------
SCF CONVERGENCE
---------------

  Last Energy change         ...    8.4514e-09  Tolerance :   1.0000e-08
  Last MAX-Density change    ...    1.8485e-05  Tolerance :   1.0000e-07
  Last RMS-Density change    ...    1.1440e-06  Tolerance :   5.0000e-09
  Last DIIS Error            ...    2.9035e-03  Tolerance :   5.0000e-07
  Last Orbital Gradient      ...    1.1272e-05  Tolerance :   1.0000e-05
  Last Orbital Rotation      ...    2.8512e-05  Tolerance :   1.0000e-05


----------------
ORBITAL ENERGIES
----------------

  NO   OCC          E(Eh)            E(eV) 
   0   2.0000      -1.191722       -32.4284 
   1   2.0000      -1.001689       -27.2573 
   2   2.0000      -0.893779       -24.3210 
   3   2.0000      -0.880270       -23.9534 
   4   2.0000      -0.757235       -20.6054 
   5   2.0000      -0.734473       -19.9860 
   6   2.0000      -0.670721       -18.2512 
   7   2.0000      -0.620697       -16.8900 
   8   2.0000      -0.588275       -16.0078 
   9   2.0000      -0.554532       -15.0896 
  10   2.0000      -0.539985       -14.6938 
  11   2.0000      -0.538224       -14.6458 
  12   2.0000      -0.506573       -13.7845 
  13   2.0000      -0.470659       -12.8073 
  14   2.0000      -0.461551       -12.5594 
  15   2.0000      -0.447929       -12.1888 
  16   2.0000      -0.357645        -9.7320 
  17   2.0000      -0.326053        -8.8723 
  18   0.0000       0.063018         1.7148 
  19   0.0000       0.079784         2.1710 
  20   0.0000       0.089643         2.4393 
  21   0.0000       0.100723         2.7408 
  22   0.0000       0.113476         3.0878 
  23   0.0000       0.132517         3.6060 
  24   0.0000       0.148035         4.0282 
  25   0.0000       0.181426         4.9369 
  26   0.0000       0.253334         6.8936 
  27   0.0000       0.275934         7.5086 
  28   0.0000       0.331678         9.0254 
*Only the first 10 virtual orbitals were printed.

                    ********************************
                    * MULLIKEN POPULATION ANALYSIS *
                    ********************************

-----------------------
MULLIKEN ATOMIC CHARGES
-----------------------
   0 C :   -0.034746
   1 C :   -0.015133
   2 C :    0.016307
   3 C :   -0.039385
   4 C :   -0.022901
   5 C :   -0.014485
   6 H :    0.028191
   7 H :    0.031351
   8 H :    0.029788
   9 H :    0.030997
  10 H :    0.030525
  11 O :   -0.233287
  12 H :    0.192778
Sum of atomic charges:   -0.0000000

--------------------------------
MULLIKEN REDUCED ORBITAL CHARGES
--------------------------------
  0 C s       :     0.977427  s :     0.977427
      pz      :     1.019296  p :     2.968194
      px      :     0.962970
      py      :     0.985928
      dz2     :     0.005061  d :     0.089124
      dxz     :     0.011910
      dyz     :     0.016184
      dx2y2   :     0.022160
      dxy     :     0.033810

  1 C s       :     1.000365  s :     1.000365
      pz      :     0.939438  p :     2.916234
      px      :     0.995826
      py      :     0.980970
      dz2     :     0.004428  d :     0.098535
      dxz     :     0.010224
      dyz     :     0.023332
      dx2y2   :     0.030295
      dxy     :     0.030255

  2 C s       :     1.049856  s :     1.049856
      pz      :     0.930802  p :     2.753163
      px      :     1.058510
      py      :     0.763851
      dz2     :     0.007701  d :     0.180675
      dxz     :     0.024711
      dyz     :     0.045682
      dx2y2   :     0.050360
      dxy     :     0.052222

  3 C s       :     0.983869  s :     0.983869
      pz      :     1.003552  p :     2.962086
      px      :     0.972326
      py      :     0.986209
      dz2     :     0.004745  d :     0.093430
      dxz     :     0.020482
      dyz     :     0.007568
      dx2y2   :     0.035735
      dxy     :     0.024899

  4 C s       :     0.979386  s :     0.979386
      pz      :     1.009194  p :     2.955372
      px      :     0.972798
      py      :     0.973380
      dz2     :     0.004557  d :     0.088142
      dxz     :     0.009981
      dyz     :     0.018288
      dx2y2   :     0.023197
      dxy     :     0.032119

  5 C s       :     0.999866  s :     0.999866
      pz      :     0.939526  p :     2.916134
      px      :     0.993923
      py      :     0.982685
      dz2     :     0.004903  d :     0.098485
      dxz     :     0.012670
      dyz     :     0.020281
      dx2y2   :     0.025835
      dxy     :     0.034797

  6 H s       :     0.921362  s :     0.921362
      pz      :     0.014210  p :     0.050447
      px      :     0.023774
      py      :     0.012462

  7 H s       :     0.919639  s :     0.919639
      pz      :     0.013075  p :     0.049010
      px      :     0.020995
      py      :     0.014941

  8 H s       :     0.920460  s :     0.920460
      pz      :     0.014180  p :     0.049752
      px      :     0.009114
      py      :     0.026458

  9 H s       :     0.918187  s :     0.918187
      pz      :     0.014390  p :     0.050816
      px      :     0.021403
      py      :     0.015023

 10 H s       :     0.920295  s :     0.920295
      pz      :     0.013303  p :     0.049181
      px      :     0.023812
      py      :     0.012066

 11 O s       :     1.580723  s :     1.580723
      pz      :     1.825304  p :     4.620271
      px      :     1.520893
      py      :     1.274074
      dz2     :     0.004194  d :     0.032293
      dxz     :     0.001796
      dyz     :     0.005789
      dx2y2   :     0.011013
      dxy     :     0.009501

 12 H s       :     0.708228  s :     0.708228
      pz      :     0.031671  p :     0.098993
      px      :     0.040641
      py      :     0.026681



                     *******************************
                     * LOEWDIN POPULATION ANALYSIS *
                     *******************************

----------------------
LOEWDIN ATOMIC CHARGES
----------------------
   0 C :   -0.057312
   1 C :   -0.045166
   2 C :   -0.037657
   3 C :   -0.072893
   4 C :   -0.051643
   5 C :   -0.045950
   6 H :    0.052386
   7 H :    0.054623
   8 H :    0.048779
   9 H :    0.053825
  10 H :    0.054720
  11 O :   -0.025783
  12 H :    0.072072

-------------------------------
LOEWDIN REDUCED ORBITAL CHARGES
-------------------------------
  0 C s       :     0.793235  s :     0.793235
      pz      :     0.934029  p :     2.973385
      px      :     1.013737
      py      :     1.025619
      dz2     :     0.022074  d :     0.290692
      dxz     :     0.029000
      dyz     :     0.043396
      dx2y2   :     0.077361
      dxy     :     0.118862

  1 C s       :     0.796315  s :     0.796315
      pz      :     0.870008  p :     2.934203
      px      :     1.039288
      py      :     1.024907
      dz2     :     0.019774  d :     0.314648
      dxz     :     0.024357
      dyz     :     0.062593
      dx2y2   :     0.102798
      dxy     :     0.105125

  2 C s       :     0.759840  s :     0.759840
      pz      :     0.869218  p :     2.751358
      px      :     1.062725
      py      :     0.819415
      dz2     :     0.034940  d :     0.526460
      dxz     :     0.065446
      dyz     :     0.112719
      dx2y2   :     0.155465
      dxy     :     0.157890

  3 C s       :     0.794451  s :     0.794451
      pz      :     0.918755  p :     2.974633
      px      :     1.018309
      py      :     1.037570
      dz2     :     0.020990  d :     0.303810
      dxz     :     0.057415
      dyz     :     0.015957
      dx2y2   :     0.126937
      dxy     :     0.082510

  4 C s       :     0.792848  s :     0.792848
      pz      :     0.926208  p :     2.968669
      px      :     1.021323
      py      :     1.021139
      dz2     :     0.020864  d :     0.290126
      dxz     :     0.022924
      dyz     :     0.050082
      dx2y2   :     0.085931
      dxy     :     0.110325

  5 C s       :     0.796751  s :     0.796751
      pz      :     0.869279  p :     2.934663
      px      :     1.036704
      py      :     1.028680
      dz2     :     0.021119  d :     0.314535
      dxz     :     0.031952
      dyz     :     0.053390
      dx2y2   :     0.085611
      dxy     :     0.122462

  6 H s       :     0.796821  s :     0.796821
      pz      :     0.046483  p :     0.150793
      px      :     0.064222
      py      :     0.040088

  7 H s       :     0.796657  s :     0.796657
      pz      :     0.042259  p :     0.148720
      px      :     0.059750
      py      :     0.046710

  8 H s       :     0.799031  s :     0.799031
      pz      :     0.046920  p :     0.152190
      px      :     0.034836
      py      :     0.070434

  9 H s       :     0.793934  s :     0.793934
      pz      :     0.046966  p :     0.152240
      px      :     0.059100
      py      :     0.046174

 10 H s       :     0.796530  s :     0.796530
      pz      :     0.042676  p :     0.148750
      px      :     0.065534
      py      :     0.040540

 11 O s       :     1.343551  s :     1.343551
      pz      :     1.716664  p :     4.601967
      px      :     1.553230
      py      :     1.332072
      dz2     :     0.010015  d :     0.080265
      dxz     :     0.000889
      dyz     :     0.014811
      dx2y2   :     0.025189
      dxy     :     0.029362

 12 H s       :     0.614100  s :     0.614100
      pz      :     0.098658  p :     0.313829
      px      :     0.142572
      py      :     0.072599



                      *****************************
                      * MAYER POPULATION ANALYSIS *
                      *****************************

  NA   - Mulliken gross atomic population
  ZA   - Total nuclear charge
  QA   - Mulliken gross atomic charge
  VA   - Mayer's total valence
  BVA  - Mayer's bonded valence
  FA   - Mayer's free valence

  ATOM       NA         ZA         QA         VA         BVA        FA
  0 C      4.0347     4.0000    -0.0347     4.0588     4.0588     0.0000
  1 C      4.0151     4.0000    -0.0151     4.1144     4.1144    -0.0000
  2 C      3.9837     4.0000     0.0163     4.2689     4.2689     0.0000
  3 C      4.0394     4.0000    -0.0394     4.0725     4.0725    -0.0000
  4 C      4.0229     4.0000    -0.0229     4.0700     4.0700    -0.0000
  5 C      4.0145     4.0000    -0.0145     4.1026     4.1026    -0.0000
  6 H      0.9718     1.0000     0.0282     1.0581     1.0581     0.0000
  7 H      0.9686     1.0000     0.0314     1.0451     1.0451     0.0000
  8 H      0.9702     1.0000     0.0298     1.0465     1.0465    -0.0000
  9 H      0.9690     1.0000     0.0310     1.0568     1.0568     0.0000
 10 H      0.9695     1.0000     0.0305     1.0462     1.0462     0.0000
 11 O      6.2333     6.0000    -0.2333     2.1477     2.1477     0.0000
 12 H      0.8072     1.0000     0.1928     1.0663     1.0663     0.0000

  Mayer bond orders larger than 0.100000
B(  0-C ,  1-C ) :   1.4629 B(  0-C ,  2-C ) :   1.4443 B(  0-C ,  9-H ) :   0.9734 
B(  1-C ,  3-C ) :   1.4540 B(  1-C , 10-H ) :   0.9853 B(  2-C ,  4-C ) :   1.4363 
B(  2-C , 11-O ) :   1.1089 B(  3-C ,  5-C ) :   1.4447 B(  3-C ,  8-H ) :   0.9868 
B(  4-C ,  5-C ) :   1.4718 B(  4-C ,  6-H ) :   0.9770 B(  5-C ,  7-H ) :   0.9856 
B( 11-O , 12-H ) :   1.0134 

-------
TIMINGS
-------

Total SCF time: 0 days 0 hours 0 min 11 sec 

Total time                  ....      11.135 sec
Sum of individual times     ....      11.102 sec  ( 99.7%)

SCF preparation             ....       3.827 sec  ( 34.4%)
Fock matrix formation       ....       7.105 sec  ( 63.8%)
  Startup                   ....       0.010 sec  (  0.1% of F)
  Split-RI-J                ....       0.372 sec  (  5.2% of F)
  Chain of spheres X        ....       5.604 sec  ( 78.9% of F)
  XC integration            ....       0.424 sec  (  6.0% of F)
    Basis function eval.    ....       0.128 sec  ( 30.3% of XC)
    Density eval.           ....       0.062 sec  ( 14.5% of XC)
    XC-Functional eval.     ....       0.046 sec  ( 10.9% of XC)
    XC-Potential eval.      ....       0.089 sec  ( 21.1% of XC)
  CPCM terms                ....       0.663 sec  (  9.3% of F)
Diagonalization             ....       0.000 sec  (  0.0%)
Density matrix formation    ....       0.017 sec  (  0.2%)
Total Energy calculation    ....       0.021 sec  (  0.2%)
Population analysis         ....       0.014 sec  (  0.1%)
Orbital Transformation      ....       0.014 sec  (  0.1%)
Orbital Orthonormalization  ....       0.000 sec  (  0.0%)
DIIS solution               ....       0.065 sec  (  0.6%)
SOSCF solution              ....       0.038 sec  (  0.3%)
Finished LeanSCF after  11.2 sec

Maximum memory used throughout the entire LEANSCF-calculation: 15.9 MB


-------------------------------------------------------------------------------
                          DFT DISPERSION CORRECTION                            
                                                                               
                                DFTD4 V3.4.0                                   
-------------------------------------------------------------------------------
The wB97X-3c composite method is recognized
Using three-body term ABC
Active option DFTDOPT                   ...         5   

-------------------------   ----------------
Dispersion correction           -0.014698867
-------------------------   ----------------


-------------------------   --------------------
FINAL SINGLE POINT ENERGY       -53.848019942411
-------------------------   --------------------



           ************************************************************
           *        Program running with 28 parallel MPI-processes    *
           *              working on a common directory               *
           ************************************************************
------------------------------------------------------------------------------
                         ORCA SCF GRADIENT CALCULATION
------------------------------------------------------------------------------

Nuc. rep. gradient        (SHARK) ... done (  0.0 sec)
HCore & Overlap gradient  (SHARK) ... done (  0.0 sec)
ECP gradient              (SHARK) ... done (  0.2 sec)
Split-RIJ-J gradient      (SHARK) ... done (  0.2 sec)
COSX-gradient                     ... done (  2.7 sec)
XC gradient                       ... done (  0.2 sec)
CPCM gradient                     ... done (  0.2 sec)
Dispersion correction             ... done (  0.0 sec)

-------------------
DISPERSION GRADIENT
-------------------

   1   C   :   -0.000433342    0.000169981   -0.000034618
   2   C   :   -0.000449230   -0.000260535   -0.000056235
   3   C   :    0.000045496    0.000397573    0.000023072
   4   C   :   -0.000043967   -0.000493800   -0.000027350
   5   C   :    0.000461434    0.000086626    0.000049332
   6   C   :    0.000396770   -0.000336394    0.000023220
   7   H   :    0.000149676    0.000047550    0.000016895
   8   H   :    0.000119194   -0.000086519    0.000007644
   9   H   :   -0.000013032   -0.000143406   -0.000007967
  10   H   :   -0.000146856    0.000067457   -0.000011234
  11   H   :   -0.000132662   -0.000063822   -0.000015981
  12   O   :    0.000031021    0.000512840    0.000026964
  13   H   :    0.000015499    0.000102449    0.000006257

Difference to translation invariance:
           :   -0.0000000000    0.0000000000    0.0000000000

Difference to rotation invariance:
           :   -0.0000000000   -0.0000000000   -0.0000000000

Norm of the Dispersion gradient    ...    0.0013353039
RMS gradient                       ...    0.0002138198
MAX gradient                       ...    0.0005128395

------------------
CARTESIAN GRADIENT
------------------

   1   C   :    0.000014675    0.000217191    0.000014408
   2   C   :    0.000063513   -0.000050956    0.000011714
   3   C   :   -0.000039062   -0.000113761   -0.000010260
   4   C   :   -0.000067530   -0.000091888   -0.000008019
   5   C   :    0.000078647   -0.000027452    0.000000434
   6   C   :    0.000008699    0.000066242   -0.000000721
   7   H   :   -0.000036197    0.000075114   -0.000013547
   8   H   :    0.000008533    0.000005432   -0.000007143
   9   H   :    0.000022547    0.000004814    0.000007536
  10   H   :   -0.000027612   -0.000046990    0.000004031
  11   H   :   -0.000001377   -0.000002601    0.000013188
  12   O   :   -0.000001698   -0.000051055   -0.000011260
  13   H   :   -0.000023138    0.000015910   -0.000000361

Difference to translation invariance:
           :   -0.0000000000   -0.0000000000    0.0000000000

Difference to rotation invariance:
           :   -0.0001321931    0.0002123342    0.0005232358

Norm of the Cartesian gradient     ...    0.0003286006
RMS gradient                       ...    0.0000526182
MAX gradient                       ...    0.0002171912

-------
TIMINGS
-------

Total SCF gradient time     ....        3.619 sec

Densities                   ....       0.000 sec  (  0.0%)
One electron gradient       ....       0.019 sec  (  0.5%)
RI-J Coulomb gradient       ....       0.184 sec  (  5.1%)
COSX gradient               ....       2.654 sec  ( 73.4%)
XC gradient                 ....       0.222 sec  (  6.1%)
CPCM gradient               ....       0.184 sec  (  5.1%)
   A-Matrix (El+Nuc)        ....       0.093 sec  (  2.6%)
   Potential                ....       0.090 sec  (  2.5%)

Maximum memory used throughout the entire SCFGRAD-calculation: 28.7 MB


           ************************************************************
           *        Program running with 28 parallel MPI-processes    *
           *              working on a common directory               *
           ************************************************************
------------------------------------------------------------------------------
                            ORCA SCF RESPONSE CALCULATION
------------------------------------------------------------------------------

GBWName                                 ... orca.gbw
Number of atoms                         ...     13
Number of basis functions               ...    121
Max core memory                         ...   7000 MB

Electric field perturbation             ... YES
Quadrupolar field perturbation          ...  NO
Magnetic field perturbation (no GIAO)   ...  NO
Magnetic field perturbation (with GIAO) ...  NO
Linear momentum (velocity) perturbation ...  NO
Spin-orbit coupling perturbation        ...  NO
Choice of electric origin               ... Center of mass
Position of electric origin             ...    -5.916387    -1.332414     0.257156
Choice of magnetic origin               ... GIAO
Position of magnetic origin             ...     0.000000     0.000000     0.000000
Nuclear geometric perturbations         ...  NO (  39 perturbations)
Nucleus-orbit perturbations             ...  NO (   0 perturbations)
Spin-dipole/Fermi contact perturbations ...  NO (   0 perturbations)

Total number of real perturbations      ...      3
Total number of imaginary perturbations ...      0
Total number of triplet perturbations   ...      0
Total number of SOC perturbations       ...      0

Using XC Grid                  ... (orca.grid_cpscf.tmp) 
Recalculating density on grid  ... (orca.grho_cpscf0.tmp) done
Calculating the xc-kernel      ... (orca.fxc_cpscf0.tmp) done

                                **********************
                                * REAL PERTURBATIONS *
                                **********************



-------------------
SHARK CP-SCF DRIVER
-------------------

Dimension of the orbital basis          ...    121
Dimension of the CPSCF-problem          ...   1854
Number of operators                     ...      1
Max. number of iterations               ...    128
Convergence Tolerance                   ... 1.0e-04
Number of perturbations                 ...      3
Perturbation type                       ... REAL

----------------------------
POPLE LINEAR EQUATION SOLVER
----------------------------

  ITERATION   0:   ||err||_max =   2.3094e+00 (   0.6 sec   0/  3 done)
  ITERATION   1:   ||err||_max =   6.1153e-01 (   0.6 sec   0/  3 done)
  ITERATION   2:   ||err||_max =   1.6248e-01 (   0.5 sec   0/  3 done)
  ITERATION   3:   ||err||_max =   7.9400e-02 (   0.5 sec   0/  3 done)
  ITERATION   4:   ||err||_max =   2.7813e-02 (   0.5 sec   0/  3 done)
  ITERATION   5:   ||err||_max =   1.0606e-02 (   0.5 sec   0/  3 done)
  ITERATION   6:   ||err||_max =   3.9466e-03 (   0.5 sec   0/  3 done)
  ITERATION   7:   ||err||_max =   1.1568e-03 (   0.5 sec   0/  3 done)
  ITERATION   8:   ||err||_max =   3.7415e-04 (   0.5 sec   0/  3 done)
  ITERATION   9:   ||err||_max =   9.9829e-05 (   0.5 sec   3/  3 done)

CP-SCF equations solved in   5.4 sec
Response densities calculated in   0.0 sec

Maximum memory used throughout the entire SCFRESP-calculation: 15.3 MB


           ************************************************************
           *        Program running with 28 parallel MPI-processes    *
           *              working on a common directory               *
           ************************************************************

------------------------------------------------------------------------------
                              ORCA PROPERTY CALCULATIONS
------------------------------------------------------------------------------

GBWName                                 ... orca.gbw
Number of atoms                         ...     13
Number of basis functions               ...    121
Max core memory                         ...   7000 MB

Electric properties:
Dipole moment                           ... YES
Quadrupole moment                       ...  NO
Static polarizability (Dipole/Dipole)   ... YES
Static polarizability (Dipole/Quad.)    ...  NO
Static polarizability (Quad./Quad.)     ...  NO
Static polarizability (Velocity)        ...  NO

Atomic electric properties:
Dipole moment                           ...  NO
Quadrupole moment                       ...  NO
Static polarizability                   ...  NO

Choice of electric origin               ... Center of mass
Position of electric origin             ...    -5.916387    -1.332414     0.257156

General magnetic properties:
Magnetizability                         ...  NO

EPR properties:
g-Tensor (aka g-matrix)                 ...  NO
Zero-Field splitting spin-orbit         ...  NO
Zero-field splitting spin-spin          ...  NO
Hyperfine couplings                     ...  NO (   0 nuclei)
Quadrupole couplings                    ...  NO (   0 nuclei)
Contact density                         ...  NO (   0 nuclei)

NMR properties:
Chemical shifts                         ...  NO (   0 nuclei)
Spin-rotation constants                 ...  NO (   0 nuclei)
Spin-spin couplings                     ...  NO (   0 nuclei,    0 pairs)

Choice of magnetic origin               ... GIAO
Position of magnetic origin             ...     0.000000     0.000000     0.000000

Properties with geometric perturbations:
SCF Hessian                             ...  NO
IR spectrum                             ...  NO
VCD spectrum                            ...  NO
X-ray spectroscopy properties:
SCF XES/XAS/RIXS spectra                ...  NO


-------------
DIPOLE MOMENT
-------------

Method             : SCF
Type of density    : Electron Density
Multiplicity       :   1
Irrep              :   0
Energy             :   -53.8333210754968903 Eh
Relativity type    : 
Basis              : AO
                                X                 Y                 Z
Electronic contribution:      0.223611623      -0.218104176       0.012419114
Nuclear contribution   :     -0.960902554       0.266429280      -0.086752440
                        -----------------------------------------
Total Dipole Moment    :     -0.737290931       0.048325104      -0.074333326
                        -----------------------------------------
Magnitude (a.u.)       :      0.742602636
Magnitude (Debye)      :      1.887545896



--------------------
Rotational spectrum 
--------------------
 
Rotational constants in cm-1:             0.191004             0.088487             0.060472 
Rotational constants in MHz :          5726.163653          2652.764392          1812.900822 

Dipole components along the rotational axes: 
x,y,z [a.u.] :    -0.021857    -0.742269    -0.004179 
x,y,z [Debye]:    -0.055557    -1.886698    -0.010622 

 

Dipole moment calculation done in   0.0 sec 


---------------------------------------------------
STATIC POLARIZABILITY TENSOR (Dipole/Dipole)
---------------------------------------------------

Method             : SCF
Type of density    : Electron Density
Type of derivative : Electric Field (Direction=X)
Multiplicity       :   1
Irrep              :   0
Relativity type    : 
Basis              : AO

The raw cartesian tensor (atomic units):
     107.789705941        -0.522046407         5.870210202  
      -0.522046407       116.641337060         3.146226643  
       5.870210202         3.146226643        48.417001018  
diagonalized tensor: 
      47.695306459       108.359164929       116.793572632  

Orientation: 
      -0.097513755         0.994793923        -0.029599297  
      -0.046105297         0.025193675         0.998618836  
       0.994165665         0.098743757         0.043408539  

Isotropic polarizability :  90.94935


Polarizability tensor calculation done in   0.0 sec 

Maximum memory used throughout the entire PROP-calculation: 6.9 MB

----------------------------------------------------------------------------
                           ORCA NUMERICAL FREQUENCIES
                              (28-process run)
----------------------------------------------------------------------------

Number of atoms                ... 13
Central differences            ... used
Number of displacements        ... 78
Numerical increment            ... 5.000e-03 bohr
IR-spectrum generation         ... on
Raman-spectrum generation      ... on
Polarizability calculation     ... 1
Surface Crossing Hessian       ... off

The output will be reduced. Please look at the following files:
SCF program output             ... >orca.lastscf
Integral program output        ... >orca.lastint
Gradient program output        ... >orca.lastgrad
Dipole moment program output   ... >orca.lastmom

List of participating nodes    ...  orca.hostnames

	<< Calculating gradient on displaced geometry  14 (of  78) >>
	<< Calculating gradient on displaced geometry  17 (of  78) >>
	<< Calculating gradient on displaced geometry  24 (of  78) >>
	<< Calculating gradient on displaced geometry  21 (of  78) >>
	<< Calculating gradient on displaced geometry  25 (of  78) >>
	<< Calculating gradient on displaced geometry  11 (of  78) >>
	<< Calculating gradient on displaced geometry   6 (of  78) >>
	<< Calculating gradient on displaced geometry   3 (of  78) >>
	<< Calculating gradient on displaced geometry  19 (of  78) >>
	<< Calculating gradient on displaced geometry   5 (of  78) >>
	<< Calculating gradient on displaced geometry   1 (of  78) >>
	<< Calculating gradient on displaced geometry  23 (of  78) >>
	<< Calculating gradient on displaced geometry   4 (of  78) >>
	<< Calculating gradient on displaced geometry  15 (of  78) >>
	<< Calculating gradient on displaced geometry  27 (of  78) >>
	<< Calculating gradient on displaced geometry  10 (of  78) >>
	<< Calculating gradient on displaced geometry  22 (of  78) >>
	<< Calculating gradient on displaced geometry   8 (of  78) >>
	<< Calculating gradient on displaced geometry  13 (of  78) >>
	<< Calculating gradient on displaced geometry  16 (of  78) >>
	<< Calculating gradient on displaced geometry  28 (of  78) >>
	<< Calculating gradient on displaced geometry   2 (of  78) >>
	<< Calculating gradient on displaced geometry   9 (of  78) >>
	<< Calculating gradient on displaced geometry  26 (of  78) >>
	<< Calculating gradient on displaced geometry  20 (of  78) >>
	<< Calculating gradient on displaced geometry  12 (of  78) >>
	<< Calculating gradient on displaced geometry   7 (of  78) >>
	<< Calculating gradient on displaced geometry  18 (of  78) >>
	<< Calculating gradient on displaced geometry  29 (of  78) >>
	<< Calculating gradient on displaced geometry  30 (of  78) >>
	<< Calculating gradient on displaced geometry  31 (of  78) >>
	<< Calculating gradient on displaced geometry  32 (of  78) >>
	<< Calculating gradient on displaced geometry  33 (of  78) >>
	<< Calculating gradient on displaced geometry  34 (of  78) >>
	<< Calculating gradient on displaced geometry  35 (of  78) >>
	<< Calculating gradient on displaced geometry  36 (of  78) >>
	<< Calculating gradient on displaced geometry  37 (of  78) >>
	<< Calculating gradient on displaced geometry  38 (of  78) >>
	<< Calculating gradient on displaced geometry  39 (of  78) >>
	<< Calculating gradient on displaced geometry  40 (of  78) >>
	<< Calculating gradient on displaced geometry  41 (of  78) >>
	<< Calculating gradient on displaced geometry  42 (of  78) >>
	<< Calculating gradient on displaced geometry  43 (of  78) >>
	<< Calculating gradient on displaced geometry  44 (of  78) >>
	<< Calculating gradient on displaced geometry  45 (of  78) >>
	<< Calculating gradient on displaced geometry  46 (of  78) >>
	<< Calculating gradient on displaced geometry  47 (of  78) >>
	<< Calculating gradient on displaced geometry  48 (of  78) >>
	<< Calculating gradient on displaced geometry  49 (of  78) >>
	<< Calculating gradient on displaced geometry  50 (of  78) >>
	<< Calculating gradient on displaced geometry  51 (of  78) >>
	<< Calculating gradient on displaced geometry  52 (of  78) >>
	<< Calculating gradient on displaced geometry  53 (of  78) >>
	<< Calculating gradient on displaced geometry  54 (of  78) >>
	<< Calculating gradient on displaced geometry  55 (of  78) >>
	<< Calculating gradient on displaced geometry  56 (of  78) >>
	<< Calculating gradient on displaced geometry  57 (of  78) >>
	<< Calculating gradient on displaced geometry  58 (of  78) >>
	<< Calculating gradient on displaced geometry  59 (of  78) >>
	<< Calculating gradient on displaced geometry  60 (of  78) >>
	<< Calculating gradient on displaced geometry  61 (of  78) >>
	<< Calculating gradient on displaced geometry  62 (of  78) >>
	<< Calculating gradient on displaced geometry  63 (of  78) >>
	<< Calculating gradient on displaced geometry  64 (of  78) >>
	<< Calculating gradient on displaced geometry  65 (of  78) >>
	<< Calculating gradient on displaced geometry  66 (of  78) >>
	<< Calculating gradient on displaced geometry  67 (of  78) >>
	<< Calculating gradient on displaced geometry  68 (of  78) >>
	<< Calculating gradient on displaced geometry  69 (of  78) >>
	<< Calculating gradient on displaced geometry  71 (of  78) >>
	<< Calculating gradient on displaced geometry  70 (of  78) >>
	<< Calculating gradient on displaced geometry  72 (of  78) >>
	<< Calculating gradient on displaced geometry  73 (of  78) >>
	<< Calculating gradient on displaced geometry  74 (of  78) >>
	<< Calculating gradient on displaced geometry  75 (of  78) >>
	<< Calculating gradient on displaced geometry  76 (of  78) >>
	<< Calculating gradient on displaced geometry  77 (of  78) >>
	<< Calculating gradient on displaced geometry  78 (of  78) >>

-----------------------
VIBRATIONAL FREQUENCIES
-----------------------

Scaling factor for frequencies =  1.000000000  (already applied!)

     0:       0.00 cm**-1
     1:       0.00 cm**-1
     2:       0.00 cm**-1
     3:       0.00 cm**-1
     4:       0.00 cm**-1
     5:       0.00 cm**-1
     6:     233.07 cm**-1
     7:     322.81 cm**-1
     8:     421.29 cm**-1
     9:     427.99 cm**-1
    10:     527.83 cm**-1
    11:     547.13 cm**-1
    12:     643.57 cm**-1
    13:     718.94 cm**-1
    14:     785.89 cm**-1
    15:     850.81 cm**-1
    16:     852.45 cm**-1
    17:     922.44 cm**-1
    18:    1006.50 cm**-1
    19:    1025.09 cm**-1
    20:    1036.60 cm**-1
    21:    1071.31 cm**-1
    22:    1116.53 cm**-1
    23:    1178.60 cm**-1
    24:    1204.52 cm**-1
    25:    1213.20 cm**-1
    26:    1311.60 cm**-1
    27:    1355.53 cm**-1
    28:    1392.94 cm**-1
    29:    1536.65 cm**-1
    30:    1566.39 cm**-1
    31:    1702.26 cm**-1
    32:    1712.49 cm**-1
    33:    3240.46 cm**-1
    34:    3248.58 cm**-1
    35:    3256.93 cm**-1
    36:    3264.60 cm**-1
    37:    3274.95 cm**-1
    38:    3907.97 cm**-1


------------
NORMAL MODES
------------

These modes are the Cartesian displacements weighted by the diagonal matrix
M(i,i)=1/sqrt(m[i]) where m[i] is the mass of the displaced atom
Thus, these vectors are normalized but *not* orthogonal

                  0          1          2          3          4          5    
      0       0.000000   0.000000   0.000000   0.000000   0.000000   0.000000
      1       0.000000   0.000000   0.000000   0.000000   0.000000   0.000000
      2       0.000000   0.000000   0.000000   0.000000   0.000000   0.000000
      3       0.000000   0.000000   0.000000   0.000000   0.000000   0.000000
      4       0.000000   0.000000   0.000000   0.000000   0.000000   0.000000
      5       0.000000   0.000000   0.000000   0.000000   0.000000   0.000000
      6       0.000000   0.000000   0.000000   0.000000   0.000000   0.000000
      7       0.000000   0.000000   0.000000   0.000000   0.000000   0.000000
      8       0.000000   0.000000   0.000000   0.000000   0.000000   0.000000
      9       0.000000   0.000000   0.000000   0.000000   0.000000   0.000000
     10       0.000000   0.000000   0.000000   0.000000   0.000000   0.000000
     11       0.000000   0.000000   0.000000   0.000000   0.000000   0.000000
     12       0.000000   0.000000   0.000000   0.000000   0.000000   0.000000
     13       0.000000   0.000000   0.000000   0.000000   0.000000   0.000000
     14       0.000000   0.000000   0.000000   0.000000   0.000000   0.000000
     15       0.000000   0.000000   0.000000   0.000000   0.000000   0.000000
     16       0.000000   0.000000   0.000000   0.000000   0.000000   0.000000
     17       0.000000   0.000000   0.000000   0.000000   0.000000   0.000000
     18       0.000000   0.000000   0.000000   0.000000   0.000000   0.000000
     19       0.000000   0.000000   0.000000   0.000000   0.000000   0.000000
     20       0.000000   0.000000   0.000000   0.000000   0.000000   0.000000
     21       0.000000   0.000000   0.000000   0.000000   0.000000   0.000000
     22       0.000000   0.000000   0.000000   0.000000   0.000000   0.000000
     23       0.000000   0.000000   0.000000   0.000000   0.000000   0.000000
     24       0.000000   0.000000   0.000000   0.000000   0.000000   0.000000
     25       0.000000   0.000000   0.000000   0.000000   0.000000   0.000000
     26       0.000000   0.000000   0.000000   0.000000   0.000000   0.000000
     27       0.000000   0.000000   0.000000   0.000000   0.000000   0.000000
     28       0.000000   0.000000   0.000000   0.000000   0.000000   0.000000
     29       0.000000   0.000000   0.000000   0.000000   0.000000   0.000000
     30       0.000000   0.000000   0.000000   0.000000   0.000000   0.000000
     31       0.000000   0.000000   0.000000   0.000000   0.000000   0.000000
     32       0.000000   0.000000   0.000000   0.000000   0.000000   0.000000
     33       0.000000   0.000000   0.000000   0.000000   0.000000   0.000000
     34       0.000000   0.000000   0.000000   0.000000   0.000000   0.000000
     35       0.000000   0.000000   0.000000   0.000000   0.000000   0.000000
     36       0.000000   0.000000   0.000000   0.000000   0.000000   0.000000
     37       0.000000   0.000000   0.000000   0.000000   0.000000   0.000000
     38       0.000000   0.000000   0.000000   0.000000   0.000000   0.000000
                  6          7          8          9         10         11    
      0      -0.027063   0.007253   0.192367   0.004821  -0.005896  -0.162309
      1      -0.012222   0.002304   0.032806   0.007789   0.001791   0.082660
      2       0.244097  -0.000776   0.001996  -0.213245   0.015462  -0.012104
      3      -0.000263  -0.000300  -0.019265  -0.019358   0.009821  -0.138580
      4      -0.001563   0.004042   0.092866  -0.017247   0.009407   0.147320
      5       0.004881  -0.002399   0.025945   0.207472  -0.125347   0.001645
      6      -0.015492   0.007201   0.191183  -0.016340  -0.029102  -0.025751
      7      -0.006418  -0.000150  -0.015580   0.000431  -0.020075  -0.274691
      8       0.124927   0.004952   0.021023   0.002691   0.278113  -0.032482
      9       0.025356  -0.001663  -0.080748   0.006872  -0.017127   0.035477
     10       0.011302   0.000943   0.008608  -0.000164   0.000168   0.365700
     11      -0.243947  -0.013346  -0.009660   0.001490   0.184180   0.007763
     12      -0.026177   0.003821   0.174742  -0.035672   0.002169   0.172107
     13      -0.009954  -0.004037  -0.066747  -0.004590   0.000037   0.042832
     14       0.237212   0.027970   0.036754   0.210749   0.012290   0.016028
     15       0.000295  -0.002104  -0.033666   0.024270   0.016338   0.167912
     16       0.001248  -0.003856  -0.084637   0.017329   0.008089   0.111420
     17       0.003047   0.009796  -0.031427  -0.209903  -0.119169   0.031218
     18      -0.034768   0.002282   0.249858  -0.063287   0.037180   0.035174
     19      -0.011182  -0.011331  -0.226305  -0.001061   0.025850   0.317654
     20       0.311927   0.070403   0.052385   0.422636  -0.381280   0.038535
     21       0.006879  -0.006674  -0.108016   0.055956   0.051476   0.033148
     22       0.005689  -0.008546  -0.196713   0.038814   0.022129  -0.076458
     23      -0.051786   0.030070  -0.076880  -0.466620  -0.505504   0.036521
     24       0.055699  -0.003476  -0.154618   0.012421  -0.018164   0.029638
     25       0.025219   0.001862   0.016178  -0.001040   0.000465   0.368153
     26      -0.543300  -0.026959  -0.020981   0.005802   0.180834   0.004765
     27      -0.037546   0.013036   0.274782   0.020989   0.036317   0.000104
     28      -0.019341   0.008795   0.148454   0.010045   0.025262   0.307936
     29       0.332420  -0.024473  -0.012796  -0.438495  -0.374067   0.033899
     30       0.005719  -0.001598  -0.078544  -0.039605   0.050653  -0.045266
     31      -0.001372   0.009166   0.222220  -0.040514   0.021566  -0.062242
     32      -0.046752  -0.011508   0.051454   0.461489  -0.512590   0.023040
     33       0.029145  -0.002933  -0.298887   0.024487   0.007677  -0.038700
     34       0.011239   0.004990   0.048769  -0.004920  -0.005114  -0.387358
     35      -0.248243  -0.083855  -0.019425   0.004228  -0.080606  -0.016175
     36       0.057887  -0.126307  -0.499064   0.046767   0.004261  -0.020702
     37       0.032399  -0.070153  -0.348447   0.029550  -0.007161  -0.369690
     38      -0.473771   0.981261  -0.216683  -0.043049  -0.053663  -0.023811
                 12         13         14         15         16         17    
      0       0.148102   0.007180  -0.007884  -0.009306  -0.178821   0.011363
      1      -0.260040   0.003644  -0.003624  -0.002858  -0.067051   0.004965
      2       0.001862  -0.074594   0.082763  -0.092003   0.016590  -0.110960
[...]
     38       0.020402  -0.019720  -0.030159  -0.000021  -0.000114   0.000115
                 36         37         38    
      0       0.006214  -0.010718  -0.000581
      1      -0.006713   0.009614   0.000967
      2       0.000303  -0.000624  -0.000004
      3       0.029706  -0.036668   0.000074
      4       0.012353  -0.014115  -0.000177
      5       0.003450  -0.004242   0.000014
      6      -0.003514  -0.000655   0.001677
      7       0.002434   0.002098  -0.000162
      8      -0.000211   0.000026   0.000076
      9       0.000298  -0.005789   0.000013
     10       0.033419  -0.061442   0.000227
     11       0.001592  -0.003416   0.000038
     12       0.063982   0.030075  -0.000418
     13       0.030843   0.016008   0.000700
     14       0.007691   0.003696  -0.000019
     15       0.017991   0.033314   0.000037
     16      -0.018484  -0.022106  -0.000146
     17       0.000932   0.002223   0.000013
     18      -0.720233  -0.338197  -0.000139
     19      -0.337353  -0.160353  -0.000035
     20      -0.086568  -0.040528   0.000141
     21      -0.223841  -0.350972  -0.000223
     22       0.163050   0.245571   0.000155
     23      -0.014292  -0.022980   0.000068
     24      -0.031343   0.062264  -0.000114
     25      -0.373059   0.673871  -0.000477
     26      -0.020467   0.037581  -0.000154
     27      -0.073179   0.123181   0.003641
     28       0.054669  -0.090158  -0.003238
     29      -0.004582   0.007957   0.000131
     30      -0.322596   0.389227   0.000397
     31      -0.143373   0.171765   0.000472
     32      -0.038282   0.046037  -0.000089
     33       0.000342   0.000023   0.053976
     34      -0.000270  -0.000352  -0.031401
     35       0.000026  -0.000014   0.004110
     36      -0.000696   0.000232  -0.869839
     37      -0.001323  -0.001701   0.484748
     38      -0.000152   0.000014  -0.066737


-----------
IR SPECTRUM
-----------

 Mode   freq       eps      Int      T**2         TX        TY        TZ
       cm**-1   L/(mol*cm) km/mol    a.u.
----------------------------------------------------------------------------
  6:    233.07   0.000603    3.05  0.000808  ( 0.002558  0.002360 -0.028203)
  7:    322.81   0.037272  188.36  0.036031  (-0.019152 -0.012113  0.188461)
  8:    421.29   0.003224   16.29  0.002388  (-0.002967 -0.045939 -0.016393)
  9:    427.99   0.000059    0.30  0.000043  ( 0.000977  0.003816 -0.005231)
 10:    527.83   0.004926   24.90  0.002913  ( 0.006540  0.002413 -0.053517)
 11:    547.13   0.000852    4.30  0.000486  ( 0.004100  0.021480  0.002736)
 12:    643.57   0.000195    0.98  0.000094  ( 0.009077  0.003226  0.001291)
 13:    718.94   0.012612   63.73  0.005474  ( 0.007834  0.003549 -0.073487)
 14:    785.89   0.020448  103.34  0.008120  ( 0.009689  0.005503 -0.089418)
 15:    850.81   0.000387    1.95  0.000142  (-0.001532 -0.011713  0.001528)
 16:    852.45   0.008601   43.47  0.003149  (-0.005368 -0.055728 -0.003788)
 17:    922.44   0.003099   15.66  0.001048  (-0.003473 -0.000794  0.032180)
 18:   1006.50   0.000005    0.02  0.000001  (-0.000279 -0.000968  0.000682)
 19:   1025.09   0.000074    0.37  0.000022  (-0.000105 -0.000059  0.004732)
 20:   1036.60   0.000357    1.80  0.000107  (-0.002568 -0.010016 -0.000655)
 21:   1071.31   0.004501   22.75  0.001311  ( 0.001273  0.036147  0.001680)
 22:   1116.53   0.005404   27.31  0.001510  (-0.032744  0.020827 -0.002127)
 23:   1178.60   0.004798   24.25  0.001270  ( 0.018040  0.030551  0.003414)
 24:   1204.52   0.000319    1.61  0.000083  ( 0.006702 -0.006112  0.000534)
 25:   1213.20   0.045434  229.60  0.011687  ( 0.020457  0.105884  0.007532)
 26:   1311.60   0.039134  197.77  0.009311  ( 0.004604  0.096271  0.004664)
 27:   1355.53   0.003553   17.96  0.000818  (-0.014643  0.024569 -0.000028)
 28:   1392.94   0.006870   34.72  0.001539  ( 0.013048  0.036854  0.003239)
 29:   1536.65   0.007743   39.13  0.001572  ( 0.000093  0.039604  0.001988)
 30:   1566.39   0.024584  124.24  0.004898  (-0.007850 -0.069432 -0.003910)
 31:   1702.26   0.018501   93.50  0.003392  (-0.025969 -0.051889 -0.004982)
 32:   1712.49   0.015806   79.88  0.002880  (-0.014115  0.051771  0.000926)
 33:   3240.46   0.000979    4.95  0.000094  ( 0.001375  0.009591  0.000602)
 34:   3248.58   0.000218    1.10  0.000021  (-0.004071  0.002068 -0.000316)
 35:   3256.93   0.001376    6.96  0.000132  (-0.008606  0.007587 -0.000495)
 36:   3264.60   0.001699    8.59  0.000162  ( 0.009684  0.008175  0.001340)
 37:   3274.95   0.000707    3.58  0.000067  ( 0.000367 -0.008195 -0.000347)
 38:   3907.97   0.043475  219.70  0.003472  (-0.038120  0.044888 -0.001890)

* The epsilon (eps) is given for a Dirac delta lineshape.
** The dipole moment derivative (T) already includes vibrational overlap.

--------------
RAMAN SPECTRUM  
--------------

 Mode    freq (cm**-1)   Activity   Depolarization
-------------------------------------------------------------------
   6:       233.07      4.323903      0.749400
   7:       322.81      1.465635      0.742736
   8:       421.29      0.494871      0.493223
   9:       427.99      0.018703      0.730243
  10:       527.83      0.712205      0.736263
  11:       547.13     11.160417      0.542753
  12:       643.57     10.893797      0.748913
  13:       718.94      0.023508      0.525793
  14:       785.89      4.044339      0.749954
  15:       850.81      5.635708      0.505655
  16:       852.45     38.143019      0.102343
  17:       922.44      1.219176      0.749633
  18:      1006.50      0.025116      0.734798
  19:      1025.09      0.010070      0.726674
  20:      1036.60     71.119734      0.074761
  21:      1071.31     47.545931      0.062438
  22:      1116.53      3.454606      0.703881
  23:      1178.60      4.684087      0.733125
  24:      1204.52      8.790489      0.714732
  25:      1213.20      6.706232      0.387618
  26:      1311.60     44.243819      0.066941
  27:      1355.53      0.684213      0.689377
  28:      1392.94      0.831435      0.749179
  29:      1536.65      1.132962      0.733315
  30:      1566.39      2.370526      0.322308
  31:      1702.26     42.119674      0.708887
  32:      1712.49     45.031532      0.655910
  33:      3240.46    122.617994      0.508737
  34:      3248.58    216.615637      0.643396
  35:      3256.93    192.733657      0.552385
  36:      3264.60     59.756887      0.606595
  37:      3274.95    691.347983      0.118702
  38:      3907.97    169.552220      0.199436

The first frequency considered to be a vibration is 6
The total number of vibrations considered is 33


--------------------------
THERMOCHEMISTRY AT 298.15K
--------------------------

Temperature         ...   298.15 K
Pressure            ...     1.00 atm
Total Mass          ...    94.11 AMU
Quasi RRHO          ...     True
Cut-Off Frequency   ...     1.00 cm^-1

Throughout the following assumptions are being made:
  (1) The electronic state is orbitally nondegenerate
  (2) There are no thermally accessible electronically excited states
  (3) Hindered rotations indicated by low frequency modes are not
      treated as such but are treated as vibrations and this may
      cause some error
  (4) All equations used are the standard statistical mechanics
      equations for an ideal gas
  (5) All vibrations are strictly harmonic

freq.     233.07  E(vib)   ...       0.32 
freq.     322.81  E(vib)   ...       0.25 
freq.     421.29  E(vib)   ...       0.18 
freq.     427.99  E(vib)   ...       0.18 
freq.     527.83  E(vib)   ...       0.13 
freq.     547.13  E(vib)   ...       0.12 
freq.     643.57  E(vib)   ...       0.09 
freq.     718.94  E(vib)   ...       0.07 
freq.     785.89  E(vib)   ...       0.05 
freq.     850.81  E(vib)   ...       0.04 
freq.     852.45  E(vib)   ...       0.04 
freq.     922.44  E(vib)   ...       0.03 
freq.    1006.50  E(vib)   ...       0.02 
freq.    1025.09  E(vib)   ...       0.02 
freq.    1036.60  E(vib)   ...       0.02 
freq.    1071.31  E(vib)   ...       0.02 
freq.    1116.53  E(vib)   ...       0.01 
freq.    1178.60  E(vib)   ...       0.01 
freq.    1204.52  E(vib)   ...       0.01 
freq.    1213.20  E(vib)   ...       0.01 
freq.    1311.60  E(vib)   ...       0.01 
freq.    1355.53  E(vib)   ...       0.01 
freq.    1392.94  E(vib)   ...       0.00 
freq.    1536.65  E(vib)   ...       0.00 
freq.    1566.39  E(vib)   ...       0.00 
freq.    1702.26  E(vib)   ...       0.00 
freq.    1712.49  E(vib)   ...       0.00 
freq.    3240.46  E(vib)   ...       0.00 
freq.    3248.58  E(vib)   ...       0.00 
freq.    3256.93  E(vib)   ...       0.00 
freq.    3264.60  E(vib)   ...       0.00 
freq.    3274.95  E(vib)   ...       0.00 
freq.    3907.97  E(vib)   ...       0.00 

------------
INNER ENERGY
------------

The inner energy is: U= E(el) + E(ZPE) + E(vib) + E(rot) + E(trans)
    E(el)   - is the total energy from the electronic structure calculation
              = E(kin-el) + E(nuc-el) + E(el-el) + E(nuc-nuc)
    E(ZPE)  - the the zero temperature vibrational energy from the frequency calculation
    E(vib)  - the the finite temperature correction to E(ZPE) due to population
              of excited vibrational states
    E(rot)  - is the rotational thermal energy
    E(trans)- is the translational thermal energy

Summary of contributions to the inner energy U:
Electronic energy                ...    -53.84801994 Eh
Zero point energy                ...      0.10679574 Eh      67.02 kcal/mol
Thermal vibrational correction   ...      0.00261843 Eh       1.64 kcal/mol
Thermal rotational correction    ...      0.00141627 Eh       0.89 kcal/mol
Thermal translational correction ...      0.00141627 Eh       0.89 kcal/mol
-----------------------------------------------------------------------
Total thermal energy                    -53.73577323 Eh


Summary of corrections to the electronic energy:
(perhaps to be used in another calculation)
Total thermal correction                  0.00545097 Eh       3.42 kcal/mol
Non-thermal (ZPE) correction              0.10679574 Eh      67.02 kcal/mol
-----------------------------------------------------------------------
Total correction                          0.11224671 Eh      70.44 kcal/mol


--------
ENTHALPY
--------

The enthalpy is H = U + kB*T
                kB is Boltzmann's constant
Total thermal energy              ...    -53.73577323 Eh 
Thermal Enthalpy correction       ...      0.00094421 Eh       0.59 kcal/mol
-----------------------------------------------------------------------
Total Enthalpy                    ...    -53.73482902 Eh


Note: Only C1 symmetry has been detected, increase convergence thresholds 
      if your molecule has a higher symmetry. Symmetry factor of 1.0 is   
      used for the rotational entropy correction. 
 

Note: Rotational entropy computed according to Herzberg 
Infrared and Raman Spectra, Chapter V,1, Van Nostrand Reinhold, 1945 
Point Group:  C1, Symmetry Number:   1  
Rotational constants in cm-1:     0.191004     0.088487     0.060472 

Vibrational entropy computed according to the QRRHO of S. Grimme
Chem.Eur.J. 2012 18 9955 using a reference frequency of 100.0 cm-1


-------
ENTROPY
-------

The entropy contributions are T*S = T*(S(el)+S(vib)+S(rot)+S(trans))
     S(el)   - electronic entropy
     S(vib)  - vibrational entropy
     S(rot)  - rotational entropy
     S(trans)- translational entropy
The entropies will be listed as multiplied by the temperature to get
units of energy

Electronic entropy                ...      0.00000000 Eh      0.00 kcal/mol
Vibrational entropy               ...      0.00380856 Eh      2.39 kcal/mol
Rotational entropy                ...      0.01276160 Eh      8.01 kcal/mol
Translational entropy             ...      0.01878531 Eh     11.79 kcal/mol
-----------------------------------------------------------------------
Final entropy term                ...      0.03535547 Eh     22.19 kcal/mol

In case the symmetry of your molecule has not been determined correctly
or in case you have a reason to use a different symmetry number we print 
out the resulting rotational entropy values for sn=1,12:

 non-linear molecules -----------------------------------
|  sn= 1 | S(rot)=       0.01276160 Eh      8.01 kcal/mol|
|  sn= 2 | S(rot)=       0.01210714 Eh      7.60 kcal/mol|
|  sn= 3 | S(rot)=       0.01172431 Eh      7.36 kcal/mol|
|  sn= 4 | S(rot)=       0.01145268 Eh      7.19 kcal/mol|
|  sn= 5 | S(rot)=       0.01124200 Eh      7.05 kcal/mol|
|  sn= 6 | S(rot)=       0.01106985 Eh      6.95 kcal/mol|
|  sn= 7 | S(rot)=       0.01092431 Eh      6.86 kcal/mol|
|  sn= 8 | S(rot)=       0.01079823 Eh      6.78 kcal/mol|
|  sn= 9 | S(rot)=       0.01068702 Eh      6.71 kcal/mol|
|  sn=10 | S(rot)=       0.01058754 Eh      6.64 kcal/mol|
|  sn=11 | S(rot)=       0.01049755 Eh      6.59 kcal/mol|
|  sn=12 | S(rot)=       0.01041540 Eh      6.54 kcal/mol|
 linear molecules ---------------------------------------
|  Dinfh | S(rot)=       0.00797478 Eh      5.00 kcal/mol|
|  Cinfv | S(rot)=       0.00862924 Eh      5.41 kcal/mol|
 --------------------------------------------------------


-------------------
GIBBS FREE ENERGY
-------------------

The Gibbs free energy is G = H - T*S

Total enthalpy                    ...    -53.73482902 Eh 
Total entropy correction          ...     -0.03535547 Eh    -22.19 kcal/mol
-----------------------------------------------------------------------
Final Gibbs free energy         ...    -53.77018449 Eh

For completeness - the Gibbs free energy minus the electronic energy
G-E(el)                           ...      0.07783545 Eh     48.84 kcal/mol



--------------------------------
SUGGESTED CITATIONS FOR THIS RUN
--------------------------------

Below you find a list of papers that are relevant to this ORCA run
We neither can nor want to force you to cite these papers, but we appreciate if you do
You receive ORCA, which is the product of decades of hard work by many enthusiastic individuals, for free
The only thing we kindly ask in return is that you cite our papers,
We deeply appreciate it, if you show your appreciation for ORCA by not just citing the generic ORCA reference.

Please note that relegating all ORCA citations to the supporting information does *not* help us.
SI sections are not indexed - citations you put there will not count into any citation statistics
But we need these citations in order to attract the funding resources that allow us to do what we are doing

Therefore, if you are a happy ORCA user, please consider citing a few of the papers listed below in the main body of your paper

In addition to the list printed below, the program has created the file orca.bibtex that contains the list in bibtex format
You can import this file easily into all common literature databanks and citation aid programs


List of essential papers. We consider these as the minimum necessary citations

  1. Neese,F.
     Software update: the ORCA program system, version 5.0
     WIRES Comput. Molec. Sci., 2022 12(1)e1606
     doi.org/10.1002/wcms.1606
  2. Mueller,M.; Hansen,A.; Grimme,S.
     wB97X-3c: A composite range-separated hybrid DFT method with a molecule-optimized polarized valence double-zeta basis set
     J. Chem. Phys., 2023 158 014103
     doi.org/10.1063/5.0133026

List of papers to cite with high priority. The work reported in these papers was absolutely
necessary for this run to complete.
Our perspective: the developers of density functionals and basis sets usually get cited in chemistry papers
Good! But without the algorithms to do something with them, the functionals or basis sets would not do anything.
Hence, in our opinion, the algorithm design and method developments papers are equally worthy of getting cited

  1. Neese,F.
     An improvement of the resolution of the identity approximation for the formation of the Coulomb matrix
     J. Comp. Chem., 2003 24(14)1740-1747
     doi.org/10.1002/jcc.10318
  2. Neese,F.; Wennmohs,F.; Hansen,A.; Becker,U.
     Efficient, approximate and parallel Hartree-Fock and hybrid DFT calculations. A 'chain-of-spheres' algorithm for the Hartree-Fock exchange
     Chem. Phys., 2009 356(1-3)98-109
     doi.org/10.1016/j.chemphys.2008.10.036
  3. Bykov,D.; Petrenko,T.; Izsak,R.; Kossmann,S.; Becker,U.; Valeev,E.; Neese,F.
     Efficient implementation of the analytic second derivatives of Hartree-Fock and hybrid DFT energies: a detailed analysis of different approximations
     Molec. Phys., 2015 113 1961-1977
     doi.org/10.1080/00268976.2015.1025114
  4. Garcia-Rates,M.; Neese,F.
     Effect of the Solute Cavity on the Solvation Energy and its Derivatives within the Framework of the Gaussian Charge Scheme
     J. Comput. Chem., 2020 41 922-939
     doi.org/10.1002/jcc.26139
  5. Helmich-Paris,B.; de Souza,B.; Neese,F.; Izsák,R.
     An improved chain of spheres for exchange algorithm
     J. Chem. Phys., 2021 155 104109
     doi.org/doi: 10.1063/5.0058766.
  6. Neese,F.
     The SHARK Integral Generation and Digestion System
     J. Comp. Chem., 2022  1-16
     doi.org/10.1002/jcc.26942
  7. Caldeweyher,E.; Bannwarth,C.; Grimme,S.
     Extension of the D3 dispersion coefficient model
     J. Chem. Phys., 2017 147 034112-XXXX
     doi.org/10.1063/1.4993215
  8. Caldeweyher,E.; Ehlert,S.; Hansen,A.; Neugebauer,H.; Spicher,S.; Bannwarth,C.; Grimme,S.
     A generally applicable atomic-charge dependent London dispersion correction
     J. Chem. Phys., 2019 150 154122-XXXX
     doi.org/10.1063/1.5090222
  9. Caldeweyher,E.; Mewes,J.; Ehlert,S.; Grimme,S.
     Extension and evaluation of the D4 London-dispersion model for periodic systems
     Phys. Chem. Chem. Phys., 2020 22(16)8499-8512
     doi.org/10.1039/D0CP00502A

List of suggested additional citations. These are papers that are important in the 'surrounding' of 
of this run, or papers that preceded the highly important papers. If you like your results we are grateful for a citation.

  1. Izsak,R.; Neese,F.
     An overlap fitted chain of spheres exchange method
     J. Chem. Phys., 2011 135 144105
     doi.org/10.1063/1.3646921
  2. Izsak,R.; Hansen,A.; Neese,F.
     The resolution of identity and chain of spheres approximations for the LPNO-CCSD singles Fock term
     Molec. Phys., 2012 110 2413-2417
     doi.org/10.1080/00268976.2012.687466
  3. Neese,F.
     The ORCA program system
     WIRES Comput. Molec. Sci., 2012 2(1)73-78
     doi.org/10.1002/wcms.81
  4. Izsak,R.; Neese,F.; Klopper,W.
     Robust fitting techniques in the chain of spheres approximation to the Fock exchange: The role of the complementary space
     J. Chem. Phys., 2013 139 
     doi.org/10.1063/1.4819264
  5. Neese,F.
     Software update: the ORCA program system, version 4.0
     WIRES Comput. Molec. Sci., 2018 8(1)1-6
     doi.org/10.1002/wcms.1327
  6. Neese,F.; Wennmohs,F.; Becker,U.; Riplinger,C.
     The ORCA quantum chemistry program package
     J. Chem. Phys., 2020 152 Art. No. L224108
     doi.org/10.1063/5.0004608

List of optional additional citations

  1. Neese,F.
     Approximate second-order SCF convergence for spin unrestricted wavefunctions
     Chem. Phys. Lett., 2000 325(1-3)93-98
     doi.org/10.1016/s0009-2614(00)00662-x

Timings for individual modules:

Sum of individual times          ...      747.019 sec (=  12.450 min)
Startup calculation              ...        5.667 sec (=   0.094 min)   0.8 %
SCF iterations                   ...       46.132 sec (=   0.769 min)   6.2 %
SCF Response                     ...        6.346 sec (=   0.106 min)   0.8 %
Property calculations            ...        0.430 sec (=   0.007 min)   0.1 %
SCF Gradient evaluation          ...        9.147 sec (=   0.152 min)   1.2 %
Numerical frequency calculation  ...      679.297 sec (=  11.322 min)  90.9 %
                             ****ORCA TERMINATED NORMALLY****
TOTAL RUN TIME: 0 days 0 hours 12 minutes 13 seconds 258 msec
